REMARK  Name = sample_receptor.pdbqt
REMARK  BioDockify Sample Receptor (https://www.biodockify.com)
ATOM      1  N   ASP A  25      13.560  20.540  10.220  1.00 15.00    -0.350 N 
ATOM      2  CA  ASP A  25      12.890  21.650  10.930  1.00 14.80     0.100 C 
ATOM      3  C   ASP A  25      13.820  22.840  11.210  1.00 14.50     0.550 C 
ATOM      4  O   ASP A  25      14.980  22.680  11.580  1.00 15.20    -0.550 OA
ATOM      5  CB  ASP A  25      12.180  21.140  12.210  1.00 15.60    -0.050 C 
ATOM      6  CG  ASP A  25      11.160  22.130  12.750  1.00 16.00     0.650 C 
ATOM      7  OD1 ASP A  25      10.140  22.380  12.060  1.00 16.50    -0.600 OA
ATOM      8  OD2 ASP A  25      11.360  22.680  13.860  1.00 16.20    -0.600 OA
ATOM      9  N   GLY A  27      15.240  25.120  10.850  1.00 13.90    -0.350 N 
ATOM     10  CA  GLY A  27      16.120  26.240  10.450  1.00 13.50     0.100 C 
ATOM     11  C   GLY A  27      17.210  25.750   9.500  1.00 13.20     0.550 C 
ATOM     12  O   GLY A  27      18.350  26.210   9.550  1.00 13.80    -0.550 OA
ATOM     13  N   ASP B  25      18.420  18.910  12.140  1.00 15.10    -0.350 N 
ATOM     14  CA  ASP B  25      17.850  17.750  12.820  1.00 14.70     0.100 C 
ATOM     15  C   ASP B  25      16.890  16.920  11.970  1.00 14.30     0.550 C 
ATOM     16  O   ASP B  25      15.720  17.290  11.820  1.00 14.90    -0.550 OA
ATOM     17  CB  ASP B  25      19.010  16.890  13.380  1.00 15.40    -0.050 C 
ATOM     18  CG  ASP B  25      18.570  15.740  14.280  1.00 15.80     0.650 C 
ATOM     19  OD1 ASP B  25      17.380  15.350  14.220  1.00 16.30    -0.600 OA
ATOM     20  OD2 ASP B  25      19.430  15.210  15.010  1.00 16.00    -0.600 OA
TER
